time,angle_deg,tsr,cp,cd,ct,cd_blade1,ct_blade1,cd_blade2,ct_blade2,cd_blade3,ct_blade3
0.0137,0.994273,7,0.273011,0.518186,0.0390016,0.172729,0.0130005,0.172729,0.0130005,0.172729,0.0130005
0.0274,1.98855,7,0.545696,0.796423,0.0779566,0.265474,0.0259852,0.265468,0.0259851,0.265481,0.0259863
0.0411,2.98282,7,0.52087,0.787287,0.07441,0.262434,0.0248025,0.262431,0.0248047,0.262422,0.0248028
0.0548,3.97709,7,0.501177,0.782655,0.0715967,0.260936,0.0238754,0.260852,0.0238608,0.260866,0.0238605
0.0685,4.97136,7,0.487515,0.779615,0.069645,0.259902,0.0232196,0.259874,0.0232143,0.259839,0.0232111
0.0822,5.96564,7,0.481738,0.778874,0.0688197,0.259637,0.0229442,0.259588,0.022934,0.259649,0.0229415
0.0959,6.95991,7,0.481518,0.778876,0.0687883,0.259641,0.0229302,0.259612,0.022925,0.259623,0.0229331
0.1096,7.95418,7,0.484895,0.7792,0.0692707,0.259755,0.0230936,0.259713,0.0230854,0.259732,0.0230917
0.1233,8.94845,7,0.489792,0.779348,0.0699703,0.259797,0.0233241,0.259779,0.0233236,0.259771,0.0233226
0.137,9.94273,7,0.495337,0.779421,0.0707625,0.259822,0.0235854,0.259791,0.0235873,0.259808,0.0235897
0.1507,10.937,7,0.500613,0.779292,0.0715162,0.259767,0.0238332,0.259745,0.023837,0.25978,0.0238459
0.1644,11.9313,7,0.505234,0.779011,0.0721762,0.259682,0.024053,0.259677,0.0240656,0.259652,0.0240577
0.1781,12.9255,7,0.509265,0.778791,0.0727522,0.259607,0.0242459,0.259588,0.0242524,0.259596,0.0242539
0.1918,13.9198,7,0.512644,0.778748,0.0732349,0.259574,0.024402,0.259586,0.0244151,0.259589,0.0244178
0.2055,14.9141,7,0.515129,0.77852,0.0735898,0.259533,0.024526,0.259494,0.0245304,0.259493,0.0245334
0.2192,15.9084,7,0.517411,0.778494,0.0739159,0.25952,0.0246353,0.259481,0.0246426,0.259493,0.024638
0.2329,16.9026,7,0.519578,0.778608,0.0742254,0.259528,0.0247318,0.259545,0.0247507,0.259534,0.024743
0.2466,17.8969,7,0.521053,0.778584,0.0744362,0.25954,0.0248096,0.25952,0.0248114,0.259525,0.0248151
0.2603,18.8912,7,0.522492,0.778716,0.0746417,0.259576,0.0248732,0.259578,0.0248871,0.259562,0.0248814
0.274,19.8855,7,0.523673,0.778825,0.0748104,0.259616,0.024933,0.259598,0.0249399,0.25961,0.0249375
0.2877,20.8797,7,0.524587,0.778903,0.0749411,0.259645,0.0249771,0.259633,0.0249857,0.259625,0.0249782
0.3014,21.874,7,0.525472,0.779015,0.0750674,0.259677,0.025017,0.25966,0.0250245,0.259678,0.0250259
0.3151,22.8683,7,0.526239,0.779131,0.075177,0.259717,0.0250556,0.259708,0.0250619,0.259705,0.0250595
0.3288,23.8625,7,0.526965,0.779236,0.0752808,0.259762,0.0250926,0.259744,0.0250978,0.25973,0.0250903
0.3425,24.8568,7,0.527562,0.779311,0.075366,0.259783,0.0251208,0.25976,0.0251185,0.259768,0.0251267
0.3562,25.8511,7,0.528144,0.779391,0.0754492,0.259804,0.0251455,0.259814,0.0251559,0.259773,0.0251478
0.3699,26.8454,7,0.528663,0.779469,0.0755233,0.259833,0.02517,0.259829,0.0251811,0.259807,0.0251722
0.3836,27.8396,7,0.529092,0.779535,0.0755846,0.259859,0.0251909,0.259852,0.0252034,0.259823,0.0251903
0.3973,28.8339,7,0.529424,0.779596,0.0756319,0.259877,0.0252093,0.259863,0.025217,0.259857,0.0252056
0.411,29.8282,7,0.529808,0.779671,0.0756869,0.259891,0.0252265,0.259882,0.0252329,0.259898,0.0252275
0.4247,30.8225,7,0.530319,0.779817,0.0757599,0.259959,0.0252546,0.259917,0.0252528,0.259941,0.0252525
0.4384,31.8167,7,0.530573,0.779825,0.0757961,0.259958,0.0252599,0.259933,0.0252687,0.259934,0.0252675
0.4521,32.811,7,0.530917,0.779914,0.0758453,0.259974,0.0252745,0.259983,0.0252904,0.259956,0.0252804
0.4658,33.8053,7,0.531164,0.779963,0.0758805,0.260009,0.025291,0.259988,0.0252996,0.259966,0.0252899
0.4795,34.7995,7,0.531413,0.780018,0.0759161,0.260038,0.0253112,0.25999,0.0253051,0.259989,0.0252999
0.4932,35.7938,7,0.531603,0.78007,0.0759433,0.260024,0.0253108,0.26002,0.0253152,0.260026,0.0253173
0.5069,36.7881,7,0.531932,0.780172,0.0759904,0.26007,0.0253285,0.260072,0.0253373,0.26003,0.0253246
0.5206,37.7824,7,0.532222,0.780255,0.0760317,0.260106,0.0253429,0.260079,0.0253498,0.26007,0.0253389
0.5343,38.7766,7,0.53232,0.780262,0.0760458,0.260105,0.0253466,0.260075,0.0253522,0.260083,0.025347
0.548,39.7709,7,0.53253,0.780347,0.0760757,0.260143,0.0253606,0.260106,0.0253612,0.260099,0.0253538
0.5617,40.7652,7,0.532836,0.780434,0.0761194,0.260153,0.0253706,0.260144,0.025379,0.260138,0.0253698
0.5754,41.7595,7,0.532978,0.780473,0.0761397,0.260186,0.0253831,0.260138,0.0253808,0.260149,0.0253758
0.5891,42.7537,7,0.533063,0.780503,0.0761518,0.260185,0.0253853,0.260152,0.0253839,0.260166,0.0253825
0.6028,43.748,7,0.533391,0.780649,0.0761987,0.260238,0.0254007,0.260212,0.0254062,0.260199,0.0253918
0.6165,44.7423,7,0.533393,0.780651,0.0761989,0.260237,0.0253994,0.260196,0.025403,0.260218,0.0253965
0.6302,45.7365,7,0.533517,0.780715,0.0762166,0.260261,0.0254092,0.260218,0.0254058,0.260237,0.0254017
0.6439,46.7308,7,0.533771,0.78083,0.0762529,0.260295,0.0254204,0.260265,0.0254205,0.260271,0.0254121
0.6576,47.7251,7,0.533793,0.780849,0.0762562,0.260294,0.0254167,0.260268,0.0254206,0.260286,0.0254189
0.6713,48.7194,7,0.533965,0.780952,0.0762806,0.260355,0.0254347,0.260291,0.0254243,0.260306,0.0254216
0.685,49.7136,7,0.534153,0.781032,0.0763076,0.260356,0.0254389,0.260342,0.0254401,0.260334,0.0254286
0.6987,50.7079,7,0.534208,0.78109,0.0763154,0.260381,0.0254417,0.260341,0.0254368,0.260368,0.0254369
0.7124,51.7022,7,0.534334,0.781175,0.0763335,0.260405,0.0254462,0.260388,0.0254479,0.260382,0.0254393
0.7261,52.6965,7,0.53449,0.781278,0.0763556,0.260447,0.0254532,0.260411,0.0254538,0.260421,0.0254486
0.7398,53.6907,7,0.534586,0.781348,0.0763694,0.260463,0.0254574,0.260426,0.025456,0.260459,0.025456
0.7535,54.685,7,0.534694,0.781443,0.0763849,0.260489,0.0254554,0.260469,0.0254669,0.260485,0.0254626
0.7672,55.6793,7,0.534898,0.781572,0.076414,0.260562,0.0254773,0.260495,0.0254703,0.260515,0.0254664
0.7809,56.6735,7,0.535032,0.781689,0.0764331,0.260584,0.0254814,0.260535,0.025477,0.260569,0.0254747
0.7946,57.6678,7,0.535168,0.7818,0.0764526,0.260621,0.0254891,0.260576,0.0254844,0.260603,0.025479
0.8083,58.6621,7,0.535287,0.781908,0.0764696,0.260646,0.0254926,0.260619,0.0254892,0.260643,0.0254879
0.822,59.6564,7,0.535514,0.78206,0.076502,0.260699,0.0255015,0.260684,0.0255028,0.260677,0.0254977
0.8357,60.6506,7,0.535658,0.782211,0.0765226,0.260732,0.0255044,0.26074,0.0255129,0.260738,0.0255054
0.8494,61.6449,7,0.535707,0.782292,0.0765296,0.260771,0.0255101,0.26074,0.0255128,0.260781,0.0255068
0.8631,62.6392,7,0.535939,0.782485,0.0765627,0.260859,0.0255281,0.260795,0.0255192,0.26083,0.0255153
0.8768,63.6335,7,0.536137,0.782644,0.0765909,0.260897,0.0255332,0.260851,0.0255282,0.260896,0.0255296
0.8905,64.6277,7,0.536175,0.782747,0.0765964,0.260922,0.0255328,0.26089,0.0255289,0.260935,0.0255347
0.9042,65.622,7,0.536349,0.782928,0.0766213,0.260986,0.0255394,0.26097,0.0255453,0.260972,0.0255366
0.9179,66.6163,7,0.536564,0.783113,0.076652,0.261065,0.0255534,0.261,0.025548,0.261049,0.0255507
0.9316,67.6105,7,0.536804,0.783314,0.0766864,0.261115,0.0255645,0.261081,0.0255603,0.261118,0.0255616
0.9453,68.6048,7,0.536885,0.783454,0.0766979,0.261154,0.025566,0.261138,0.0255678,0.261162,0.0255642
0.959,69.5991,7,0.53706,0.783654,0.0767228,0.26122,0.0255732,0.261191,0.0255725,0.261243,0.0255771
0.9727,70.5934,7,0.537345,0.783876,0.0767635,0.261315,0.0255924,0.261268,0.0255847,0.261294,0.0255864
0.9864,71.5876,7,0.537471,0.784055,0.0767816,0.26135,0.025594,0.261333,0.025593,0.261372,0.0255946
1.0001,72.5819,7,0.53761,0.784242,0.0768014,0.261409,0.0255969,0.261403,0.0256016,0.26143,0.0256029
1.0138,73.5762,7,0.537934,0.784523,0.0768477,0.261517,0.0256193,0.261486,0.0256142,0.26152,0.0256142
1.0275,74.5705,7,0.538091,0.784732,0.0768701,0.261573,0.0256243,0.261563,0.0256217,0.261596,0.0256241
1.0412,75.5647,7,0.538276,0.78495,0.0768966,0.261646,0.0256306,0.261628,0.0256277,0.261677,0.0256383
1.0549,76.559,7,0.538525,0.785209,0.0769322,0.261744,0.0256467,0.261731,0.0256443,0.261733,0.0256412
1.0686,77.5533,7,0.53874,0.785464,0.0769629,0.261817,0.0256538,0.261809,0.025656,0.261837,0.0256531
1.0823,78.5475,7,0.538953,0.785729,0.0769932,0.261896,0.025658,0.261888,0.0256622,0.261945,0.0256731
1.096,79.5418,7,0.539216,0.785998,0.0770309,0.262015,0.0256795,0.261981,0.0256742,0.262001,0.0256772
1.1097,80.5361,7,0.539457,0.786287,0.0770653,0.262088,0.0256847,0.262088,0.02569,0.26211,0.0256906
1.1234,81.5304,7,0.539698,0.786575,0.0770997,0.262196,0.0256981,0.262177,0.0257011,0.262202,0.0257005
1.1371,82.5246,7,0.539968,0.786888,0.0771382,0.262297,0.025713,0.262274,0.025711,0.262317,0.0257142
1.1508,83.5189,7,0.540164,0.787171,0.0771663,0.262385,0.0257199,0.262389,0.0257249,0.262398,0.0257216
1.1645,84.5132,7,0.540441,0.787509,0.0772058,0.262502,0.0257369,0.262496,0.02574,0.26251,0.025729
1.1782,85.5075,7,0.5408,0.787865,0.0772571,0.262607,0.0257485,0.262604,0.0257523,0.262654,0.0257562
1.1919,86.5017,7,0.541024,0.788195,0.0772892,0.262715,0.0257603,0.262727,0.025764,0.262752,0.0257649
1.2056,87.496,7,0.54136,0.788567,0.0773371,0.26285,0.0257792,0.262846,0.0257769,0.26287,0.025781
1.2193,88.4903,7,0.541664,0.788934,0.0773806,0.262974,0.0257911,0.26297,0.0257939,0.262989,0.0257955
1.233,89.4845,7,0.54202,0.78933,0.0774314,0.263115,0.0258079,0.2631,0.0258149,0.263115,0.0258086
1.2467,90.4788,7,0.542196,0.789682,0.0774566,0.263245,0.0258207,0.263213,0.0258212,0.263224,0.0258148
1.2604,91.4731,7,0.542445,0.790057,0.0774921,0.263341,0.0258294,0.26336,0.0258334,0.263357,0.0258294
1.2741,92.4674,7,0.542873,0.790523,0.0775532,0.263478,0.0258432,0.26351,0.0258535,0.263536,0.0258566
1.2878,93.4616,7,0.543205,0.79094,0.0776007,0.263633,0.025861,0.263646,0.0258708,0.263662,0.025869
1.3015,94.4559,7,0.543384,0.791311,0.0776263,0.263763,0.0258716,0.263771,0.0258789,0.263777,0.0258758
1.3152,95.4502,7,0.54372,0.791781,0.0776743,0.263931,0.0258941,0.263918,0.0258927,0.263933,0.0258874
1.3289,96.4445,7,0.544068,0.792245,0.077724,0.264058,0.0259024,0.264082,0.0259135,0.264105,0.0259081
1.3426,97.4387,7,0.544352,0.79271,0.0777646,0.264226,0.0259164,0.264232,0.0259239,0.264252,0.0259243
1.3563,98.433,7,0.544581,0.793168,0.0777972,0.264393,0.0259324,0.26439,0.0259353,0.264385,0.0259295
1.37,99.4273,7,0.544833,0.793646,0.0778333,0.26454,0.0259423,0.264561,0.0259528,0.264545,0.0259382
1.3837,100.422,7,0.54517,0.794158,0.0778814,0.264713,0.0259572,0.264706,0.025962,0.264739,0.0259623
1.3974,101.416,7,0.545323,0.794616,0.0779032,0.26487,0.0259659,0.264871,0.0259702,0.264875,0.0259671
1.4111,102.41,7,0.545455,0.795077,0.0779221,0.265025,0.0259717,0.265035,0.025982,0.265017,0.0259683
1.4248,103.404,7,0.545675,0.795591,0.0779536,0.265201,0.0259839,0.265191,0.025986,0.2652,0.0259838
1.4385,104.399,7,0.545713,0.796041,0.077959,0.265349,0.0259842,0.265348,0.02599,0.265345,0.0259848
1.4522,105.393,7,0.545785,0.796493,0.0779693,0.26549,0.0259849,0.265527,0.026004,0.265476,0.0259804
1.4659,106.387,7,0.545679,0.796873,0.0779542,0.265638,0.0259848,0.26559,0.0259808,0.265644,0.0259886
1.4796,107.381,7,0.545617,0.797297,0.0779453,0.265763,0.025979,0.265778,0.0259869,0.265755,0.0259793
1.4933,108.376,7,0.545348,0.797612,0.0779068,0.265866,0.0259654,0.265893,0.0259816,0.265853,0.0259597
1.507,109.37,7,0.545023,0.797905,0.0778604,0.265979,0.0259541,0.265951,0.0259537,0.265975,0.0259526
1.5207,110.364,7,0.544502,0.798147,0.077786,0.266056,0.0259286,0.266051,0.025935,0.26604,0.0259224
1.5344,111.359,7,0.543732,0.798283,0.0776759,0.266095,0.0258915,0.266102,0.0258983,0.266087,0.0258862
1.5481,112.353,7,0.542937,0.798382,0.0775624,0.266122,0.0258498,0.266133,0.0258604,0.266127,0.0258522
1.5618,113.347,7,0.541858,0.798361,0.0774082,0.26614,0.0258034,0.266118,0.025806,0.266104,0.0257989
1.5755,114.341,7,0.540799,0.798323,0.077257,0.266126,0.0257549,0.266107,0.025754,0.26609,0.0257481
1.5892,115.336,7,0.539602,0.798198,0.077086,0.266075,0.0256963,0.26608,0.0257018,0.266043,0.0256879
1.6029,116.33,7,0.538177,0.797965,0.0768824,0.266007,0.0256284,0.266005,0.0256343,0.265953,0.0256197
1.6166,117.324,7,0.536825,0.797705,0.0766892,0.265915,0.0255605,0.26591,0.0255716,0.26588,0.0255571
1.6303,118.318,7,0.535295,0.797333,0.0764708,0.265795,0.0254915,0.265784,0.025498,0.265755,0.0254812
1.644,119.313,7,0.533775,0.796891,0.0762535,0.265653,0.0254231,0.265625,0.0254229,0.265613,0.0254076
1.6577,120.307,7,0.531873,0.796289,0.0759818,0.265444,0.0253312,0.265425,0.0253318,0.26542,0.0253188
1.6714,121.301,7,0.530107,0.795707,0.0757296,0.265279,0.0252511,0.265226,0.0252489,0.265202,0.0252297
1.6851,122.296,7,0.528527,0.79509,0.0755038,0.26507,0.0251759,0.26505,0.0251808,0.264971,0.0251471
1.6988,123.29,7,0.526828,0.794369,0.0752612,0.264811,0.0250907,0.264798,0.0250958,0.264759,0.0250747
1.7125,124.284,7,0.525173,0.793595,0.0750247,0.264561,0.0250129,0.264526,0.025014,0.264508,0.0249978
1.7262,125.278,7,0.523741,0.792893,0.0748201,0.264332,0.0249487,0.264292,0.0249418,0.264269,0.0249295
1.7399,126.273,7,0.522465,0.792192,0.0746379,0.264095,0.0248904,0.264074,0.0248849,0.264023,0.0248626
1.7536,127.267,7,0.521167,0.791469,0.0744524,0.263842,0.0248222,0.26383,0.0248267,0.263797,0.0248036
1.7673,128.261,7,0.520086,0.790784,0.0742981,0.263631,0.0247759,0.263578,0.0247678,0.263574,0.0247543
1.781,129.255,7,0.519003,0.790065,0.0741433,0.263401,0.0247276,0.263337,0.0247134,0.263327,0.0247023
1.7947,130.25,7,0.518209,0.789446,0.0740298,0.263176,0.0246854,0.263148,0.0246832,0.263123,0.0246611
1.8084,131.244,7,0.517381,0.788794,0.0739115,0.262959,0.0246446,0.262928,0.0246434,0.262908,0.0246236
1.8221,132.238,7,0.516612,0.788159,0.0738017,0.262772,0.0246149,0.262692,0.0246008,0.262695,0.0245859
1.8358,133.233,7,0.516014,0.787601,0.0737163,0.26257,0.0245844,0.262518,0.0245748,0.262514,0.024557
1.8495,134.227,7,0.515468,0.787076,0.0736383,0.262388,0.0245539,0.26234,0.0245513,0.262347,0.0245332
1.8632,135.221,7,0.51502,0.786556,0.0735743,0.262241,0.0245428,0.262144,0.0245206,0.262172,0.024511
1.8769,136.215,7,0.514504,0.786032,0.0735006,0.262022,0.024506,0.262005,0.0245063,0.262004,0.0244883
1.8906,137.21,7,0.514304,0.785655,0.0734719,0.261932,0.0245074,0.261859,0.0244912,0.261864,0.0244734
1.9043,138.204,7,0.513881,0.785166,0.0734115,0.261766,0.0244857,0.26169,0.0244674,0.26171,0.0244584
1.918,139.198,7,0.513603,0.784768,0.0733718,0.261608,0.0244657,0.26157,0.0244597,0.26159,0.0244464
1.9317,140.192,7,0.513401,0.784409,0.0733431,0.261505,0.0244622,0.261439,0.0244448,0.261465,0.0244361
1.9454,141.187,7,0.513201,0.784066,0.0733145,0.261394,0.0244534,0.26133,0.0244354,0.261342,0.0244257
1.9591,142.181,7,0.513068,0.783738,0.0732954,0.261275,0.024444,0.261233,0.0244334,0.26123,0.024418
1.9728,143.175,7,0.51285,0.783414,0.0732643,0.261161,0.0244309,0.261107,0.0244211,0.261146,0.0244122
1.9865,144.17,7,0.512777,0.783152,0.0732539,0.261085,0.0244296,0.261012,0.0244152,0.261055,0.0244091
2.0002,145.164,7,0.512668,0.782883,0.0732383,0.261002,0.0244246,0.260925,0.0244107,0.260957,0.0244031
2.0139,146.158,7,0.51258,0.782634,0.0732258,0.260922,0.0244226,0.260834,0.0244056,0.260878,0.0243976
2.0276,147.152,7,0.512598,0.782446,0.0732283,0.260854,0.0244242,0.260785,0.0244084,0.260807,0.0243956
2.0413,148.147,7,0.512596,0.782251,0.073228,0.260788,0.0244251,0.260711,0.0244025,0.260752,0.0244004
2.055,149.141,7,0.512518,0.782023,0.0732168,0.260708,0.0244216,0.260639,0.0243963,0.260675,0.0243989
2.0687,150.135,7,0.512317,0.781794,0.0731881,0.260619,0.0244082,0.260577,0.0243905,0.260598,0.0243893
2.0824,151.129,7,0.512407,0.781677,0.073201,0.260582,0.0244146,0.26052,0.0243908,0.260575,0.0243956
2.0961,152.124,7,0.512516,0.781556,0.0732165,0.260552,0.0244213,0.260466,0.0243965,0.260537,0.0243987
2.1098,153.118,7,0.512495,0.78141,0.0732135,0.260509,0.0244195,0.260441,0.0244019,0.26046,0.0243921
2.1235,154.112,7,0.512431,0.781236,0.0732045,0.26044,0.0244158,0.260378,0.0243968,0.260418,0.0243919
2.1372,155.107,7,0.512505,0.781144,0.0732151,0.260409,0.0244154,0.260337,0.0243987,0.260397,0.0244009
2.1509,156.101,7,0.512587,0.781041,0.0732267,0.260388,0.0244231,0.260303,0.0244011,0.26035,0.0244026
2.1646,157.095,7,0.512592,0.780946,0.0732274,0.260361,0.0244275,0.260271,0.0244007,0.260314,0.0243992
2.1783,158.089,7,0.512675,0.780873,0.0732392,0.260311,0.0244247,0.260252,0.0244058,0.26031,0.0244087
2.192,159.084,7,0.512602,0.780746,0.0732289,0.260265,0.0244185,0.260211,0.0244039,0.26027,0.0244065
2.2057,160.078,7,0.512748,0.780724,0.0732497,0.260273,0.0244309,0.260202,0.0244085,0.26025,0.0244104
2.2194,161.072,7,0.512815,0.780655,0.0732593,0.260255,0.0244364,0.260177,0.0244121,0.260223,0.0244108
2.2331,162.066,7,0.512803,0.780568,0.0732576,0.260197,0.0244286,0.260149,0.0244106,0.260222,0.0244183
2.2468,163.061,7,0.512848,0.78053,0.073264,0.2602,0.0244338,0.260136,0.0244118,0.260194,0.0244185
2.2605,164.055,7,0.512994,0.780534,0.0732848,0.260201,0.0244437,0.260139,0.0244192,0.260193,0.0244219
2.2742,165.049,7,0.512973,0.780448,0.0732818,0.260153,0.0244375,0.260118,0.0244198,0.260177,0.0244246
2.2879,166.044,7,0.512996,0.780418,0.0732851,0.260156,0.0244397,0.260107,0.0244211,0.260155,0.0244244
2.3016,167.038,7,0.513268,0.780482,0.0733241,0.26018,0.0244525,0.260112,0.0244285,0.260189,0.0244431
2.3153,168.032,7,0.513145,0.780368,0.0733064,0.260141,0.0244471,0.260086,0.0244285,0.260142,0.0244309
2.329,169.026,7,0.51325,0.780388,0.0733214,0.260143,0.0244531,0.260095,0.0244302,0.26015,0.0244381
2.3427,170.021,7,0.513334,0.780388,0.0733334,0.260144,0.024454,0.260094,0.0244354,0.26015,0.0244439
2.3564,171.015,7,0.513384,0.78038,0.0733405,0.260138,0.0244549,0.260089,0.0244385,0.260153,0.0244471
2.3701,172.009,7,0.513464,0.78038,0.073352,0.260154,0.0244647,0.260085,0.0244408,0.260141,0.0244464
2.3838,173.003,7,0.513503,0.780387,0.0733575,0.260144,0.0244645,0.260096,0.0244454,0.260147,0.0244476
2.3975,173.998,7,0.513568,0.780402,0.0733669,0.260135,0.0244637,0.260107,0.024449,0.26016,0.0244541
2.4112,174.992,7,0.513632,0.78041,0.0733761,0.260144,0.024471,0.260108,0.0244532,0.260158,0.0244519
2.4249,175.986,7,0.513714,0.780435,0.0733877,0.260144,0.0244738,0.260107,0.024452,0.260184,0.0244619
2.4386,176.981,7,0.513853,0.780491,0.0734075,0.260172,0.0244813,0.260124,0.0244583,0.260195,0.0244679
2.4523,177.975,7,0.513923,0.780516,0.0734176,0.260165,0.0244782,0.260143,0.0244648,0.260208,0.0244746
2.466,178.969,7,0.513895,0.780509,0.0734135,0.260172,0.0244748,0.260141,0.0244666,0.260196,0.0244722
2.4797,179.963,7,0.513866,0.780521,0.0734094,0.260194,0.0244788,0.260136,0.0244621,0.260192,0.0244684
2.4934,180.958,7,0.514116,0.780633,0.0734452,0.260219,0.0244892,0.260193,0.0244782,0.260221,0.0244778
2.5071,181.952,7,0.514204,0.780665,0.0734577,0.260226,0.0244992,0.260199,0.0244754,0.260239,0.0244831
2.5208,182.946,7,0.514248,0.780707,0.0734641,0.260243,0.0245009,0.260191,0.0244741,0.260273,0.0244891
2.5345,183.94,7,0.514263,0.780722,0.0734662,0.260237,0.0244972,0.260216,0.0244792,0.26027,0.0244898
2.5482,184.935,7,0.514367,0.780793,0.073481,0.260261,0.024502,0.26025,0.024491,0.260282,0.0244879
2.5619,185.929,7,0.514413,0.780825,0.0734876,0.260283,0.0245089,0.260236,0.0244859,0.260305,0.0244929
2.5756,186.923,7,0.514531,0.780912,0.0735044,0.260291,0.0245085,0.260272,0.0244922,0.260349,0.0245037
2.5893,187.918,7,0.514649,0.78099,0.0735214,0.260326,0.0245152,0.260308,0.0244992,0.260356,0.0245069
2.603,188.912,7,0.514565,0.780985,0.0735093,0.26033,0.0245134,0.260311,0.024497,0.260344,0.0244989
2.6167,189.906,7,0.514698,0.781097,0.0735282,0.260363,0.0245189,0.260343,0.0245025,0.260391,0.0245069
2.6304,190.9,7,0.514807,0.781168,0.0735439,0.260387,0.0245242,0.260355,0.0245033,0.260426,0.0245165
2.6441,191.895,7,0.514806,0.781207,0.0735437,0.260402,0.0245235,0.260395,0.024511,0.26041,0.0245092
2.6578,192.889,7,0.514784,0.781262,0.0735406,0.26042,0.0245236,0.260396,0.0245066,0.260446,0.0245104
2.6715,193.883,7,0.515014,0.78141,0.0735734,0.260451,0.0245291,0.260457,0.0245188,0.260501,0.0245254
2.6852,194.877,7,0.51488,0.781397,0.0735543,0.260477,0.0245291,0.260443,0.0245079,0.260478,0.0245173
2.6989,195.872,7,0.514937,0.7815,0.0735625,0.260506,0.0245328,0.260481,0.024514,0.260513,0.0245157
2.7126,196.866,7,0.515151,0.781639,0.0735931,0.260532,0.0245367,0.260534,0.0245285,0.260572,0.0245278
2.7263,197.86,7,0.514992,0.781622,0.0735703,0.260547,0.0245368,0.26051,0.0245112,0.260565,0.0245222
2.74,198.855,7,0.515101,0.781753,0.0735858,0.260583,0.0245359,0.260573,0.0245246,0.260597,0.0245252
2.7537,199.849,7,0.515149,0.781833,0.0735927,0.260608,0.02454,0.260586,0.0245241,0.260639,0.0245286
2.7674,200.843,7,0.51512,0.781879,0.0735885,0.260628,0.0245401,0.260607,0.0245234,0.260644,0.0245251
2.7811,201.837,7,0.515115,0.78196,0.0735878,0.260649,0.024538,0.260625,0.0245196,0.260686,0.0245302
2.7948,202.832,7,0.515132,0.782054,0.0735903,0.26068,0.0245408,0.260663,0.0245208,0.26071,0.0245288
2.8085,203.826,7,0.515092,0.782113,0.0735846,0.26072,0.0245424,0.26068,0.0245193,0.260713,0.0245229
2.8222,204.82,7,0.515073,0.782181,0.0735818,0.260734,0.0245417,0.260697,0.0245115,0.26075,0.0245287
2.8359,205.814,7,0.515069,0.782266,0.0735812,0.26075,0.0245364,0.26075,0.0245198,0.260765,0.024525
2.8496,206.809,7,0.515098,0.782365,0.0735854,0.260786,0.0245392,0.260773,0.0245199,0.260806,0.0245264
2.8633,207.803,7,0.515017,0.782411,0.0735738,0.260806,0.0245354,0.26079,0.0245187,0.260814,0.0245197
2.877,208.797,7,0.514877,0.782456,0.0735538,0.260821,0.0245316,0.260796,0.0245102,0.260839,0.0245119
2.8907,209.792,7,0.514836,0.782532,0.0735479,0.26084,0.0245275,0.260812,0.0245057,0.26088,0.0245147
2.9044,210.786,7,0.51494,0.782665,0.0735629,0.260891,0.0245342,0.260844,0.0245044,0.26093,0.0245243
2.9181,211.78,7,0.514732,0.782669,0.0735331,0.2609,0.0245195,0.260853,0.0244982,0.260915,0.0245154
2.9318,212.774,7,0.514633,0.782736,0.073519,0.260902,0.0245127,0.260901,0.0244996,0.260933,0.0245067
2.9455,213.769,7,0.514535,0.782786,0.073505,0.260941,0.0245137,0.260909,0.0244929,0.260936,0.0244984
2.9592,214.763,7,0.514372,0.78282,0.0734817,0.260956,0.0245121,0.260907,0.0244781,0.260958,0.0244915
2.9729,215.757,7,0.514184,0.782843,0.0734549,0.26094,0.0244951,0.260916,0.0244687,0.260987,0.0244911
2.9866,216.751,7,0.514119,0.782919,0.0734456,0.260971,0.0244938,0.260967,0.0244718,0.260981,0.0244799
3.0003,217.746,7,0.513998,0.782978,0.0734282,0.261002,0.0244891,0.260964,0.0244649,0.261012,0.0244743
3.014,218.74,7,0.513694,0.782942,0.0733848,0.260982,0.0244729,0.260947,0.0244469,0.261013,0.024465
3.0277,219.734,7,0.51352,0.782995,0.07336,0.261012,0.0244682,0.260966,0.0244379,0.261017,0.0244539
3.0414,220.729,7,0.513395,0.78303,0.0733422,0.261002,0.0244572,0.260989,0.0244364,0.26104,0.0244486
3.0551,221.723,7,0.513125,0.783017,0.0733036,0.261019,0.0244508,0.260964,0.0244179,0.261034,0.0244349
3.0688,222.717,7,0.512774,0.782983,0.0732534,0.260995,0.0244309,0.260959,0.0244005,0.261029,0.0244219
3.0825,223.711,7,0.512717,0.783056,0.0732452,0.261029,0.0244298,0.260993,0.024402,0.261034,0.0244134
3.0962,224.706,7,0.512331,0.78299,0.0731902,0.260996,0.0244058,0.260954,0.0243835,0.261039,0.0244008
3.1099,225.7,7,0.512011,0.782956,0.0731445,0.260995,0.0243969,0.260947,0.0243651,0.261014,0.0243825
3.1236,226.694,7,0.511804,0.782958,0.0731148,0.260984,0.0243843,0.260958,0.0243572,0.261015,0.0243734
3.1373,227.688,7,0.511384,0.782867,0.0730548,0.260948,0.0243589,0.260923,0.0243367,0.260997,0.0243592
3.151,228.683,7,0.511138,0.782859,0.0730197,0.260973,0.0243585,0.260903,0.0243193,0.260983,0.0243419
3.1647,229.677,7,0.510792,0.782784,0.0729703,0.260915,0.0243349,0.260912,0.0243099,0.260957,0.0243255
3.1784,230.671,7,0.510404,0.782698,0.0729148,0.2609,0.0243197,0.260858,0.0242844,0.26094,0.0243107
3.1921,231.666,7,0.509977,0.78261,0.0728539,0.26086,0.0242945,0.260848,0.0242699,0.260902,0.0242895
3.2058,232.66,7,0.509624,0.782549,0.0728034,0.260852,0.0242812,0.26082,0.0242501,0.260877,0.0242721
3.2195,233.654,7,0.509166,0.782415,0.072738,0.260794,0.0242558,0.260759,0.0242247,0.260862,0.0242576
3.2332,234.648,7,0.508725,0.782301,0.072675,0.260757,0.024231,0.260731,0.0242083,0.260813,0.0242357
3.2469,235.643,7,0.508368,0.782207,0.0726241,0.260748,0.0242224,0.260695,0.0241889,0.260764,0.0242128
3.2606,236.637,7,0.507968,0.782095,0.0725669,0.260703,0.0242023,0.260651,0.0241685,0.260741,0.024196
3.2743,237.631,7,0.507542,0.781941,0.072506,0.260646,0.0241828,0.260606,0.0241478,0.260689,0.0241754
3.288,238.625,7,0.507053,0.7818,0.0724361,0.260591,0.024158,0.26057,0.0241241,0.260639,0.024154
3.3017,239.62,7,0.506803,0.781706,0.0724004,0.260551,0.0241433,0.260552,0.0241152,0.260603,0.0241419
3.3154,240.614,7,0.50638,0.781556,0.07234,0.260483,0.024116,0.260508,0.0240994,0.260565,0.0241246
3.3291,241.608,7,0.50586,0.781376,0.0722658,0.260429,0.0240951,0.260428,0.0240719,0.260519,0.0240987
3.3428,242.603,7,0.505571,0.781257,0.0722244,0.260418,0.0240907,0.260374,0.0240496,0.260465,0.0240841
3.3565,243.597,7,0.505256,0.78113,0.0721794,0.260368,0.0240708,0.260327,0.0240355,0.260435,0.0240732
3.3702,244.591,7,0.504764,0.780927,0.0721092,0.260292,0.0240444,0.260277,0.0240143,0.260358,0.0240506
3.3839,245.585,7,0.504448,0.780788,0.072064,0.260233,0.024025,0.260249,0.0240063,0.260306,0.0240327
3.3976,246.58,7,0.504162,0.780653,0.0720231,0.260218,0.0240179,0.260167,0.0239839,0.260268,0.0240213
3.4113,247.574,7,0.50389,0.780524,0.0719843,0.260151,0.024003,0.260145,0.023973,0.260228,0.0240083
3.425,248.568,7,0.503495,0.780326,0.0719278,0.260076,0.0239804,0.260089,0.023959,0.260161,0.0239884
3.4387,249.562,7,0.503228,0.780196,0.0718897,0.260038,0.0239665,0.260027,0.0239414,0.260131,0.0239818
3.4524,250.557,7,0.503007,0.780061,0.0718581,0.260006,0.0239629,0.259995,0.0239315,0.26006,0.0239637
3.4661,251.551,7,0.502725,0.779901,0.0718178,0.259932,0.0239432,0.259942,0.0239174,0.260028,0.0239572
3.4798,252.545,7,0.502369,0.77972,0.071767,0.259862,0.0239229,0.25989,0.0239041,0.259967,0.02394
3.4935,253.54,7,0.502276,0.779632,0.0717537,0.259847,0.0239226,0.259849,0.0238948,0.259937,0.0239363
3.5072,254.534,7,0.502019,0.779499,0.071717,0.259783,0.0239095,0.259827,0.0238877,0.25989,0.0239198
3.5209,255.528,7,0.501834,0.779352,0.0716905,0.259735,0.0238966,0.259754,0.0238712,0.259863,0.0239226
3.5346,256.522,7,0.501578,0.779206,0.071654,0.259706,0.0238905,0.259725,0.0238656,0.259775,0.0238979
3.5483,257.517,7,0.501423,0.779094,0.0716318,0.259652,0.0238777,0.259689,0.0238598,0.259752,0.0238943
3.562,258.511,7,0.501257,0.778981,0.0716082,0.259603,0.0238655,0.259639,0.0238485,0.259739,0.0238942
3.5757,259.505,7,0.501088,0.778841,0.071584,0.259584,0.0238644,0.259606,0.0238427,0.259651,0.0238769
3.5894,260.499,7,0.500961,0.778739,0.0715659,0.259528,0.0238533,0.259571,0.0238373,0.25964,0.0238753
3.6031,261.494,7,0.500782,0.778607,0.0715403,0.259494,0.0238466,0.259527,0.0238298,0.259587,0.023864
3.6168,262.488,7,0.500699,0.778529,0.0715285,0.259471,0.0238434,0.259484,0.0238213,0.259575,0.0238638
3.6305,263.482,7,0.500518,0.778397,0.0715026,0.259406,0.0238311,0.259478,0.02382,0.259513,0.0238514
3.6442,264.477,7,0.500397,0.778304,0.0714853,0.259381,0.0238281,0.259433,0.0238137,0.25949,0.0238435
3.6579,265.471,7,0.500371,0.778243,0.0714816,0.259355,0.0238241,0.259404,0.0238091,0.259484,0.0238484
3.6716,266.465,7,0.500256,0.778146,0.0714651,0.259303,0.0238155,0.259385,0.0238049,0.259458,0.0238447
3.6853,267.459,7,0.500196,0.778062,0.0714566,0.259299,0.0238162,0.259351,0.0238001,0.259412,0.0238403
3.699,268.454,7,0.500093,0.777998,0.0714418,0.259276,0.0238087,0.259323,0.0237948,0.259399,0.0238383
3.7127,269.448,7,0.500157,0.777934,0.071451,0.259258,0.0238113,0.259316,0.0238043,0.259359,0.0238354
3.7264,270.442,7,0.499905,0.77781,0.071415,0.259227,0.0238033,0.259273,0.0237914,0.25931,0.0238203
3.7401,271.436,7,0.499785,0.777736,0.0713978,0.259181,0.0237935,0.259267,0.0237858,0.259288,0.0238184
3.7538,272.431,7,0.499897,0.777713,0.0714138,0.259144,0.0237895,0.25926,0.0237925,0.259309,0.0238318
3.7675,273.425,7,0.49985,0.77766,0.0714072,0.25914,0.0237929,0.259234,0.0237883,0.259286,0.023826
3.7812,274.419,7,0.499694,0.777549,0.0713848,0.259122,0.0237872,0.259192,0.0237814,0.259235,0.0238162
3.7949,275.414,7,0.499684,0.777515,0.0713834,0.259109,0.0237899,0.259187,0.0237817,0.259218,0.0238118
3.8086,276.408,7,0.499702,0.777473,0.071386,0.259068,0.0237839,0.259174,0.0237838,0.259231,0.0238183
3.8223,277.402,7,0.499669,0.777433,0.0713812,0.259079,0.0237846,0.259154,0.0237787,0.2592,0.0238179
3.836,278.396,7,0.499595,0.77737,0.0713707,0.259058,0.0237842,0.25915,0.0237781,0.259162,0.0238085
3.8497,279.391,7,0.49957,0.777326,0.0713671,0.259027,0.023779,0.259142,0.0237817,0.259157,0.0238064
3.8634,280.385,7,0.499628,0.777323,0.0713754,0.259038,0.0237821,0.259119,0.023777,0.259166,0.0238163
3.8771,281.379,7,0.499576,0.777265,0.071368,0.259015,0.0237783,0.259109,0.0237778,0.259141,0.0238118
3.8908,282.373,7,0.499478,0.77721,0.071354,0.258991,0.0237727,0.259111,0.0237779,0.259108,0.0238035
3.9045,283.368,7,0.499556,0.77721,0.0713651,0.259002,0.0237773,0.259096,0.0237796,0.259113,0.0238082
3.9182,284.362,7,0.499518,0.777204,0.0713596,0.259003,0.0237764,0.259095,0.0237734,0.259106,0.0238098
3.9319,285.356,7,0.499562,0.777177,0.0713661,0.25898,0.0237739,0.259121,0.023791,0.259076,0.0238012
3.9456,286.351,7,0.499425,0.777113,0.0713464,0.25897,0.0237713,0.259045,0.0237656,0.259098,0.0238094
3.9593,287.345,7,0.499528,0.777151,0.0713612,0.258973,0.0237732,0.259097,0.0237824,0.259081,0.0238056
3.973,288.339,7,0.499458,0.777112,0.0713512,0.258953,0.0237693,0.259096,0.0237819,0.259064,0.0238
3.9867,289.333,7,0.499446,0.777083,0.0713495,0.258969,0.0237738,0.259046,0.0237715,0.259069,0.0238041
4.0004,290.328,7,0.499467,0.777094,0.0713524,0.258962,0.0237732,0.259073,0.0237772,0.259059,0.023802
4.0141,291.322,7,0.499423,0.777063,0.0713462,0.258938,0.0237678,0.259067,0.023777,0.259058,0.0238015
4.0278,292.316,7,0.499448,0.77708,0.0713497,0.258938,0.0237663,0.259071,0.0237769,0.259071,0.0238065
4.0415,293.31,7,0.499377,0.777045,0.0713396,0.258957,0.0237687,0.259051,0.0237714,0.259038,0.0237994
4.0552,294.305,7,0.499407,0.777066,0.0713439,0.258954,0.0237703,0.259068,0.0237727,0.259045,0.0238009